 VARIABLES  =  "X"  "temp"  "u"  "rho"  "X_H" "X_H2" "X_O" "X_O2" "X_OH" "X_H2O" "X_HO2" "X_H2O2" "X_CO" "X_CO2" "X_CH2O" "X_HCO" "X_HO2CHO" "X_O2CHO" "X_OCHO" "X_CH2OH" "X_CH3O" "X_CH3O2H" "X_CH3O2" "X_CH4" "X_CH3" "X_CH2" "X_CH2(S)" "X_C2H6" "X_C2H5" "X_C2H4" "X_C2H3" "X_C2H2" "X_CH3CHO" "X_CH3CO" "X_CH2CO" "X_HCCO" "X_C2H5O" "X_C2H5O2" "X_C2H3O1-2" "X_CH3COCH3" "X_CH3COCH2" "X_C2H3CHO" "X_C2H3CO" "X_C2H5CO" "X_IC3H7" "X_C3H6" "X_C3H5-A" "X_C3H5-S" "X_C3H5-T" "X_C3H4-P" "X_C3H4-A" "X_C3H3" "X_C3H2" "X_C3H5O" "X_C3H6OOH2-1" "X_C3H6OOH2-1O2" "X_IC3H7O2" "X_C3KET21" "X_CH3CHCO" "X_SC4H9" "X_IC4H9" "X_TC4H9" "X_IC4H8" "X_IC4H7" "X_TC4H9O2" "X_IC4H9O2" "X_IC4H8O2H-I" "X_TC4H9O" "X_TC4H9O2H" "X_IC4H7O" "X_IC3H7CHO" "X_TC3H6CHO" "X_IC4H8OOH-IO2" "X_IC4KETII" "X_IC4H7OH" "X_IC4H6OH" "X_IC3H5CHO" "X_IC3H5CO" "X_TC3H6OCHO" "X_IC3H6CO" "X_IC4H7OOH" "X_TC3H6O2CHO" "X_CH2CCH2OH" "X_BC5H11" "X_AC5H10" "X_BC5H10" "X_CC5H10" "X_AC5H9-C" "X_CC5H9-B" "X_AC5H9O-C" "X_CC5H9O-B" "X_CH3CHCHO" "X_BC6H12" "X_CC6H12" "X_C5H10-2" "X_IC4H7-I1" "X_YC7H15" "X_XC7H14" "X_YC7H14" "X_XC7H13-Z" "X_YC7H13-Y2" "X_YC7H13O-Y2" "X_YC7H15O2" "X_ACC6H10" "X_ACC6H9-A" "X_ACC6H9-D" "X_NEOC5H11" "X_NEOC5H11O2" "X_NEOC5H10OOH" "X_TC4H9CHO" "X_TC4H9CO" "X_IC8H18" "X_AC8H17" "X_BC8H17" "X_CC8H17" "X_DC8H17" "X_IC8H16" "X_JC8H16" "X_AC8H17O2" "X_BC8H17O2" "X_CC8H17O2" "X_DC8H17O2" "X_CC8H17O2H" "X_CC8H17O" "X_AC8H16OOH-A" "X_AC8H16OOH-B" "X_AC8H16OOH-C" "X_BC8H16OOH-A" "X_BC8H16OOH-D" "X_CC8H16OOH-A" "X_DC8H16OOH-C" "X_DC8H16OOH-B" "X_IC8ETERAB" "X_IC8ETERAC" "X_IC8ETERBD" "X_AC8H16OOH-BO2" "X_BC8H16OOH-AO2" "X_BC8H16OOH-DO2" "X_CC8H16OOH-AO2" "X_DC8H16OOH-BO2" "X_IC8KETAB" "X_IC8KETBA" "X_IC8KETBD" "X_IC8KETDB" "X_IC3H7COC3H6-T" "X_TC4H9COC2H4S" "X_N2"
 ZONE  I=789  FORMAT=POINT  SPECFORMAT=MOLE 
0.0 300.0 0.3469092614845849 1.2293016540789063 -2.1417396802358048e-15 2.2009427040456006e-10 -9.502428174727659e-16 0.20661157020422793 -3.564829326222649e-21 -8.485051612791608e-17 -1.4316904425796225e-16 2.8149319813824712e-16 -5.646657785222766e-17 -1.9474239265798266e-15 -7.074954833921452e-17 -2.5508651307679728e-23 -6.882670802931537e-17 1.8027079763831993e-16 2.256146492341484e-16 -6.035780744596599e-23 2.0178513372343366e-26 -5.284336065691298e-16 2.0136338051042317e-17 -1.8919916827077343e-16 2.254763895482566e-15 -4.45558225682785e-22 -3.3430777150362824e-15 -9.698544861861092e-17 -1.8332303716208373e-15 8.095689064674558e-16 9.840069166406387e-27 6.464439061360032e-17 -3.665422064289276e-18 -1.0086463896695225e-15 -8.613089474934455e-18 6.509303836996981e-21 -1.6797734747966057e-28 -1.2851882991963966e-17 -6.403245486915048e-44 3.914191532762349e-16 -1.5922916710258554e-15 1.788316859475796e-15 -7.310441422555275e-16 6.402460793480673e-29 8.553708569968599e-16 -3.8998749642143803e-17 -1.0119114908762393e-16 -4.3298201748207306e-16 1.0990123168913739e-29 -1.0697213092563833e-16 8.618532453730938e-18 -1.0418365322549932e-15 4.3261820736528257e-16 -2.9732647988116647e-16 -2.303732818446093e-16 -1.4096925980775109e-18 5.014637015887394e-18 -3.525346896675483e-17 7.976811161046563e-16 6.152028151990455e-16 -1.2242880210641313e-16 -1.3847511269762985e-16 1.2718015601714743e-15 1.7490268018606325e-15 -7.130843328084409e-19 -6.303149887896476e-19 5.151417012742055e-17 1.0953563121796734e-26 -4.0871973775489763e-16 -7.145606538037708e-27 2.4997937969656903e-16 -5.632075881564883e-16 2.1827843202619727e-19 -1.7273560485427935e-16 1.2494906284122326e-17 2.786173773129432e-16 2.2446486721445993e-16 1.064237244282259e-15 -5.608577997762758e-35 1.5780991464283525e-16 -1.0755072367940911e-16 -2.985772514495994e-18 -3.265712285020907e-15 7.128797274644946e-17 -1.8629285409585302e-17 8.22840707456249e-18 3.1465854270489923e-18 2.8893644390776253e-16 1.4193961747429787e-16 7.45997221181226e-16 7.973564969884296e-16 -5.143706716129183e-16 -6.519808289594777e-18 -4.72511364485693e-20 2.140937236710183e-31 -3.4354273661935723e-17 2.3855429279835242e-17 -6.881016430609527e-17 3.926313952334738e-17 -1.8288648873860443e-16 -5.2010795795822576e-17 1.813762306380558e-16 9.525488161883139e-20 3.650779581541309e-16 -7.459396502621027e-18 -2.3134557227305794e-16 -4.303729698176422e-16 -2.274292950339451e-18 -2.6929883318050423e-28 3.2141648773937093e-18 -6.7615957439731e-36 0.01652892561700402 9.763064788678277e-19 -2.963507338833886e-16 -5.070640638186455e-17 -3.1036262634478435e-16 -9.398144656248466e-19 1.1654014464965081e-17 -5.35256661340675e-19 -4.837419958969192e-18 -1.075240137467969e-17 -1.5246892833857692e-18 3.8599811440236717e-16 1.910421582185739e-26 -8.318346565786468e-29 -6.4119894657366316e-18 -2.819273818158439e-27 1.135016458584989e-16 -1.592968473986959e-17 -5.214646470072857e-16 -1.0140764003929056e-27 1.2772063491139637e-16 1.401828063332926e-17 1.0078601683042675e-15 6.662343910201224e-18 -2.3776842023804438e-20 4.2105000277855865e-19 -5.920302023694827e-20 -1.9221468722301915e-18 4.737478435239065e-19 2.3311355523840764e-18 -2.647661926648526e-17 -1.0711219059673344e-16 -6.170931634969591e-18 -1.203920449738418e-16 7.132513892316244e-17 0.7768595039586804
0.004333333333333334 299.9999999998433 0.346909262867549 1.2293016491782593 -8.996361506978893e-20 4.544989759655004e-09 -3.026353359620815e-18 0.20661156934533995 -1.7739715799405312e-19 3.3667923417225577e-16 -1.093293514676813e-14 2.8218325542523304e-16 -4.308530856924317e-15 -3.4239321222410627e-15 -7.184108193829916e-15 -2.5695919185743673e-21 -6.882670499965599e-17 -2.2381586803398745e-17 2.2561337618926724e-16 -6.16828162129166e-21 2.059306692337086e-24 -5.284329824198174e-16 2.266366734507356e-15 -1.344808569081049e-16 4.21983879874766e-20 -3.040097813470396e-20 -3.0607864900767587e-26 -9.696845072555862e-17 -4.699070872960337e-20 8.086955702288786e-16 8.880959022259748e-25 6.504614097840488e-17 -4.36717571388707e-16 -9.855033250764114e-16 -1.010803256172187e-15 4.1304120484370294e-19 -2.2822221244842607e-26 -1.8472812319584234e-15 -7.591186791515414e-42 3.9199230596274736e-16 -1.5922916622789483e-15 1.5456502248877494e-15 -7.310441395184914e-16 9.60281106677602e-30 1.0918543075666836e-21 -3.8992724176685215e-17 -1.0119091155841003e-16 -9.625986092146912e-22 1.2885370162478704e-27 -1.0697193347850399e-16 8.618816669234927e-18 -3.953902158623786e-17 4.1730440522836074e-23 -5.472750825618616e-17 -4.900305457802687e-22 -2.3186129468598233e-16 8.619740643262152e-16 -3.525347265319588e-17 7.976811330545803e-16 6.152028128749128e-16 -5.212529660699262e-22 -9.448542422329689e-23 1.271801559297624e-15 1.7490268253286425e-15 -1.3935850393715635e-16 -1.232009045538487e-16 2.1809527893632475e-22 1.9700857346137697e-24 -4.087197578804864e-16 -1.277652642281002e-24 2.499793788040284e-16 -4.328914369002486e-21 5.178445259714873e-17 -1.7273559592047786e-16 1.2494924556256233e-17 2.7861723663470644e-16 2.244646154807187e-16 1.064237240683106e-15 -1.0411746869957595e-32 1.578099140643668e-16 -1.0755072329664844e-16 -5.663705004944995e-16 -7.237880310748746e-21 7.12879725358849e-17 -1.8629285341238458e-17 8.228407051765752e-18 3.1465854168760686e-18 2.889365004144718e-16 1.4193962695843206e-16 7.45997153650651e-16 7.973463753885382e-16 -5.143706696500716e-16 -6.5198082668532775e-18 -4.725113629198903e-20 2.140937244742524e-31 -3.43542718896099e-17 7.618509070356979e-23 -6.881016407229299e-17 3.926313942965426e-17 -1.8288648810992057e-16 -5.2010786943292564e-17 1.813762206369964e-16 2.396451780234692e-17 3.650779568990673e-16 -7.45939647592854e-18 -2.3134557373046954e-16 -3.3033203879923763e-21 -4.3221902585448573e-16 -5.117901878512419e-26 3.2141648662654596e-18 -1.403553801998877e-33 0.016528925561382107 -3.0061867673648305e-22 -1.628373290000051e-21 -1.935470092782005e-21 -8.56674544844216e-22 -9.398144609196954e-19 1.165401195019136e-17 -1.4239376806342018e-16 -1.2867784629243206e-15 -2.8605261830397685e-15 -4.0569178604253394e-16 3.8599799139102016e-16 5.0262752609678965e-24 -2.212921011487461e-26 -8.150221431773742e-24 -7.500084559505869e-25 2.4053256349280348e-22 -3.3690675977944166e-23 -1.0990538336397709e-21 -2.698270850798452e-25 1.622753828133042e-22 1.40183166583975e-17 1.004883080530925e-15 6.662363828476153e-18 -6.436150354295885e-18 1.139187894001922e-16 -1.5987144828850443e-17 -5.202963681314832e-16 1.281930466022427e-16 2.3311345349999252e-18 -2.6473166822674525e-17 -1.0711267567058137e-16 -6.170911466326331e-18 -1.2039204457878673e-16 7.132513874329361e-17 0.7768595005483131
0.007333333333333334 300.0000000002149 0.34690927974699604 1.2293015893645463 -2.8092566927378224e-24 5.732328540966436e-08 -8.567744112984429e-21 0.20661155886372723 -3.028339406010288e-22 1.1658277371261907e-13 -1.0956483697632838e-14 3.1343438482160773e-16 5.181577245695181e-15 -3.3882107058709365e-15 -7.179930212736035e-15 -1.1412976897042631e-22 -6.882670159060146e-17 -2.860105173670642e-17 2.2561249091665285e-16 -3.651127924167986e-26 2.06922820295079e-24 -5.283831248574261e-16 2.2507138849755196e-15 2.120862755499689e-15 -4.223608301502258e-22 -4.0088255338579216e-25 -4.4865375274106253e-32 -9.589111688446232e-17 -1.7440908473460976e-24 9.637087000516772e-16 8.8816369739376e-25 8.611674577798763e-17 -4.367031136207155e-16 -9.697380152377446e-16 -1.0481586211743117e-15 5.75955930179669e-22 -2.2839749490443393e-26 -1.847328131846877e-15 -7.481123982578449e-42 3.923889905713528e-16 -1.5922915902706546e-15 1.5043719275938471e-15 -7.310440956045217e-16 1.9516142649206026e-30 2.0170442203257684e-27 -3.858619995339944e-17 -1.011907400205283e-16 -3.0980709221386152e-27 1.2887519556146136e-27 -1.0695814014469275e-16 8.622976484402256e-18 -2.135732111104073e-18 5.8290620957696585e-30 -1.3463394123084212e-17 -1.5081171667765596e-27 -2.318617724391198e-16 8.619751227527081e-16 -3.5253473845352264e-17 7.976825917845995e-16 6.152027863074085e-16 -3.2107950738852015e-27 -9.327430762031695e-29 1.2718020672505678e-15 1.7490267657305548e-15 -1.3935859994207677e-16 -1.2320142115140023e-16 1.3347138848869058e-27 2.089292291482388e-24 -4.0871975546092655e-16 -1.2589270363371806e-24 2.499793682636137e-16 -5.024877600630135e-26 5.178466289697663e-17 -1.7273558296963977e-16 1.2494936298271062e-17 2.786171339326152e-16 2.2446443580679807e-16 1.0642371956743787e-15 -4.806663659330105e-37 1.578099079328631e-16 -1.0755071876158435e-16 -5.663748071047057e-16 -2.295732910910597e-26 7.128796958552662e-17 -1.8629284442492245e-17 8.228407099760612e-18 3.146585286472039e-18 2.88936528403498e-16 1.4193962784597128e-16 7.459970771649898e-16 7.97339336688841e-16 -5.143706451192129e-16 -6.519807986173885e-18 -4.725113430910846e-20 2.140938737257889e-31 -3.435419492911249e-17 3.5185313376694685e-28 -6.881016121869828e-17 3.926313784625781e-17 -1.8288648053156526e-16 -5.2010778880747305e-17 1.8137620677764563e-16 2.396459305679941e-17 3.6507794182199474e-16 -7.459396048954957e-18 -2.3134556552800153e-16 4.256333345915568e-24 -4.318327456664515e-16 -5.36486663375215e-26 3.2141647322505184e-18 -9.919408917997698e-37 0.016528924882559467 -6.157440114075394e-25 -2.3986279288948517e-24 -4.261501861008843e-24 -4.006174414906906e-25 -9.398144210008332e-19 1.1654009597824236e-17 -1.4259319918290587e-16 -1.288083840673703e-15 -2.865252676495019e-15 -4.0582236101259406e-16 3.859978927322521e-16 5.0235666064245386e-24 -2.3252620798499498e-26 -8.630077867555096e-29 -7.5133127294928365e-25 7.244727256542206e-28 -1.1138538503169146e-28 -3.457158704557631e-27 -2.95242458121695e-25 9.513635812592658e-29 1.401831608943906e-17 1.004881617911561e-15 6.662363551749695e-18 -6.4361965851964946e-18 1.1391663113877157e-16 -1.598684455181939e-17 -5.202974749619287e-16 1.281930786290826e-16 2.3311337424300144e-18 -2.647077569820405e-17 -1.0711300736999101e-16 -6.170897266574371e-18 -1.2039203965475007e-16 7.132513588648836e-17 0.7768594589303245
0.010333333333333333 300.00000001972404 0.3469095262710309 1.229300715786956 1.775736320364578e-26 8.280962775647049e-07 -2.4440940674471814e-23 0.2066114057895753 -9.052300926541855e-25 5.7935313129944006e-12 -8.386084294793142e-15 1.9872003960645035e-15 5.118643236427694e-13 -8.855479944245687e-16 -6.8836270198811864e-15 -6.162341827025963e-24 -6.882652098800159e-17 -2.8903489081847084e-17 2.256116968589057e-16 2.4126586909897793e-28 2.059673268833528e-24 -5.244597647009961e-16 2.2406378537888816e-15 1.1239244325495891e-13 -4.167535459949522e-22 -5.323291283646858e-30 -5.957599062634576e-37 -1.5323156565388368e-17 -6.505134065380241e-29 1.0035029026424536e-14 8.88231073433555e-25 1.3959073854611355e-15 -4.3542753025053277e-16 -9.542231745877064e-16 -1.0466712649175046e-15 8.090486913423746e-25 -2.28397474656344e-26 -1.8473210798353845e-15 -7.36145819549192e-42 3.927972969009811e-16 -1.592290485712727e-15 1.494219761081522e-15 -7.310425893778703e-16 3.961016369362149e-31 4.029859113337495e-33 -6.130450349582176e-18 -1.0119003375407667e-16 -1.0011776361703213e-32 1.2887521039832875e-27 -1.0581535863323674e-16 8.954875693194702e-18 -1.1569496796249708e-19 8.179903651203968e-37 -3.313455794801488e-18 1.0736982171601599e-32 -2.318616220276122e-16 8.619746975289516e-16 -3.525345438338243e-17 7.978170837520715e-16 6.152024007121612e-16 -2.0117696902072005e-32 -8.54552397005152e-34 1.2718623423864607e-15 1.749025663447124e-15 -1.393585067888018e-16 -1.232013400954872e-16 -8.090521633710063e-31 2.0960736110192085e-24 -4.0871951765528047e-16 -1.419596316633959e-24 2.499792227693528e-16 -2.1189059850503873e-27 5.178462579474622e-17 -1.7273547244111412e-16 1.249498767733901e-17 2.786168586574514e-16 2.2446425229254396e-16 1.0642365378664183e-15 -6.333770195850284e-39 1.578098838565138e-16 -1.0755065217070271e-16 -5.663744582459815e-16 2.832205815058591e-28 7.1287926112964e-17 -1.8629259248243797e-17 8.228452309652506e-18 3.146583634824439e-18 2.8893638937717847e-16 1.4193954565064447e-16 7.459965781103283e-16 7.973318450082061e-16 -5.1437011632204e-16 -6.5198028606972574e-18 -4.7251104035355857e-20 2.141135668820321e-31 -3.434676120734555e-17 1.847317111113666e-33 -6.8810118791444e-17 3.92631152044409e-17 -1.8288636990046815e-16 -5.2010744781127166e-17 1.8137609496334512e-16 2.3964578722416323e-17 3.6507775611209757e-16 -7.459376641718918e-18 -2.3134542459838666e-16 4.293648586814623e-24 -4.3144285952188195e-16 -5.377991435091334e-26 3.2141627929635176e-18 -8.333266317168367e-39 0.016528914969041845 -1.809421588423769e-27 -7.21530098148217e-27 -1.3351862807557878e-26 -1.1728639375758241e-27 -9.398138553395563e-19 1.165400072775457e-17 -1.4259224900772705e-16 -1.2880869810172866e-15 -2.865653999942577e-15 -4.0582238825175734e-16 3.8599759195955287e-16 5.0241993680916595e-24 -2.333300214925806e-26 -7.132193008397185e-29 -7.51326967490699e-25 -1.2536845798354234e-29 -8.36155486331632e-30 -1.079825947090447e-28 -2.9870457975720043e-25 -2.029716489676486e-28 1.4018307741782414e-17 1.0048796040579708e-15 6.6623595692290416e-18 -6.436231102696951e-18 1.139141693317101e-16 -1.5986501734191595e-17 -5.202972012661026e-16 1.2819287741702625e-16 2.3311316630488473e-18 -2.6468369963272124e-17 -1.0711327973429565e-16 -6.170879649262834e-18 -1.20391967623722e-16 7.13250933928367e-17 0.7768588511386905
0.011833333333333335 300.00000040529875 0.3469109075062175 1.2292958212928184 1.7834511513109723e-26 5.1455666263395765e-06 -1.4073518021287985e-25 0.20661054832981085 1.2500457544294998e-25 1.1046444261054508e-10 4.538984613971085e-14 3.482510886307157e-14 1.0671535027975957e-11 6.515593866940969e-14 9.987793300185435e-16 -6.205676867327592e-25 -6.882172213245728e-17 -2.784701735764593e-17 2.2561726538747734e-16 4.551834555509674e-28 -1.6968622344162166e-23 -4.0835715237915964e-16 2.3932469264559455e-15 2.1480090652503906e-12 -4.133908412890928e-22 -1.4531195252507394e-34 -1.6262690141021885e-41 2.254216609685596e-15 -3.2226146284420323e-32 2.1023758454779206e-13 8.84841090427773e-25 3.2091765954136337e-14 -3.9568006999325316e-16 -9.465196949262089e-16 -9.391609888274106e-16 2.3368883704296835e-27 -2.2838670899399176e-26 -1.8470942805399156e-15 -7.302029468455534e-42 3.9347971538103795e-16 -1.5922809359345248e-15 1.4923289470449954e-15 -7.310049702942609e-16 1.576536458752848e-31 2.9050074090624113e-34 9.696143259222691e-16 -1.0118357593769404e-16 -6.576454977629774e-38 1.2887531641710696e-27 -7.015922421387854e-17 1.9306368904889218e-17 -1.2004480365899274e-20 2.5413030106421032e-43 -1.3109606755343317e-18 1.5392736747269451e-32 -2.318606908006108e-16 8.619766940275915e-16 -3.525331910740498e-17 8.024063624787046e-16 6.152002654585466e-16 -2.818029027426716e-34 -7.621942414684805e-34 1.2743431366221159e-15 1.7490186220828456e-15 -1.3935740432628058e-16 -1.2320064524981388e-16 -8.172495516235372e-31 2.0828481416149108e-24 -4.0871786346304007e-16 7.550897618071068e-24 2.499787894314424e-16 -2.1183709894842935e-27 5.1784448217440737e-17 -1.7273488268677737e-16 1.2497175893304684e-17 2.7861580052680466e-16 2.2447032420887626e-16 1.0642328849366955e-15 -2.0220140449726885e-38 1.5781279417452467e-16 -1.0755025250172782e-16 -5.663724828211725e-16 5.341130315571299e-28 7.128768324802196e-17 -1.862854357047072e-17 8.230832817016102e-18 3.1465864824793364e-18 2.8893538252761103e-16 1.4193904132776122e-16 7.459940551630899e-16 7.973256286818959e-16 -5.143606320780983e-16 -6.5197194515336114e-18 -4.725086511110725e-20 2.1504657906085525e-31 -3.407075192270271e-17 2.188496993969729e-34 -6.880983695749208e-17 3.9263043403439374e-17 -1.8288574618807666e-16 -5.2010569687394634e-17 1.813754877368951e-16 2.3964498481044545e-17 3.650784182613626e-16 -7.45861912556112e-18 -2.3134459088452103e-16 4.293912477043748e-24 -4.312464928711555e-16 -5.376743195113081e-26 3.21415279219363e-18 9.109222583746332e-40 0.01652885943851826 1.5861015962927085e-28 1.3812647015610421e-27 5.5755163196310074e-27 1.0750659666654033e-28 -9.39810593221432e-19 1.1653961092244245e-17 -1.4259101526224035e-16 -1.2880822293439012e-15 -2.865835692020657e-15 -4.0582095786883984e-16 3.8599619570852134e-16 5.024486700954442e-24 -2.333819743980171e-26 -7.132158431654056e-29 -7.513204842654792e-25 -1.2539114529018568e-29 -8.361243492311058e-30 -1.0797966595918063e-28 -2.9911860074588794e-25 -2.029723334675686e-28 1.4018261065164062e-17 1.004875544039937e-15 6.6623373348997886e-18 -6.436228846587659e-18 1.139125930836896e-16 -1.5986281802087447e-17 -5.202954874584736e-16 1.2819238818915885e-16 2.3311235903887413e-18 -2.6467086816542195e-17 -1.071130910085676e-16 -6.170852125369381e-18 -1.2039156409998308e-16 7.132485514016871e-17 0.7768554465413683
0.012583333333333335 300.00000431182144 0.34691512458829465 1.2292808780372269 1.7843018097830223e-26 1.8316984056945033e-05 1.795478524653547e-27 0.20660793228385196 1.4860881947376669e-24 1.1015838615367743e-09 5.989387130317128e-13 3.745902017389771e-13 1.1506534172265617e-10 9.5303145313806e-13 1.0781857451337661e-13 -1.2187248816994327e-26 -6.874431707661874e-17 -9.81575565221028e-18 2.2571605704845313e-16 2.559225728528804e-27 -1.409512061254734e-20 1.3386187283834529e-15 4.791799749598887e-15 2.144562671760656e-11 -4.116799476934693e-22 -5.371112908751677e-39 -6.011603299315578e-46 3.478713519130817e-14 -2.7025419806153663e-32 2.4694992969688753e-12 8.342122575452352e-25 3.9945393042283194e-13 2.33612324482365e-16 -9.425901879055086e-16 7.390075192530076e-16 1.422920969361599e-29 -2.281926697893864e-26 -1.8428842064971512e-15 -7.271720388162348e-42 4.0358725898060324e-16 -1.5921832381216847e-15 1.494212549589595e-15 -7.303955236590687e-16 1.531701439722067e-30 2.905161567077824e-34 1.5880825397000616e-14 -1.0109178893180327e-16 5.176428950909288e-41 1.2887578236096257e-27 4.950327335596961e-16 1.8339046850394003e-16 -5.989346445114299e-22 1.2349753430079691e-44 -7.16144898502694e-19 1.5397661794875538e-32 -2.3185567294605654e-16 8.620809655685712e-16 -3.525262215131931e-17 8.816437461077494e-16 6.151942478377076e-16 -2.81439219390581e-34 -7.620854490518771e-34 1.325512957370808e-15 1.7489961785993265e-15 -1.3934000077912642e-16 -1.2319236725731062e-16 -8.17205626241061e-31 2.281296911685559e-24 -4.0870666774961694e-16 1.0010225301530425e-22 2.4998645887274147e-16 -2.1183746108608788e-27 5.1783914667323364e-17 -1.7273308786777463e-16 1.2551720238542975e-17 2.786128251334101e-16 2.2461872178402114e-16 1.06422250028862e-15 -1.6157932758578958e-37 1.5789314027133102e-16 -1.0754835685397048e-16 -5.66365918970863e-16 3.003004331335801e-27 7.128696750859408e-17 -1.861268273792227e-17 8.289046803424674e-18 3.1468757685413683e-18 2.8893227626657636e-16 1.4193746423167547e-16 7.459868935108585e-16 7.973156915407714e-16 -5.142074471445191e-16 -6.5180090332880865e-18 -4.724829058960924e-20 2.3726695543715897e-31 -2.886635168905618e-17 2.188351981308431e-34 -6.880769147765233e-17 3.926443472420443e-17 -1.8288372456382135e-16 -5.2010003574138985e-17 1.8137361803835104e-16 2.3964255256289685e-17 3.651225462366055e-16 -7.440287844172549e-18 -2.31341546323806e-16 4.294004923048632e-24 -4.3114302404015565e-16 -5.375589990109509e-26 3.2141456356772057e-18 6.081879364763847e-38 0.01652869002923028 1.963175332171472e-27 1.758906895778029e-26 7.384665717615011e-26 1.3270457147022057e-27 -9.397972344080392e-19 1.1653854645079741e-17 -1.425890032402902e-16 -1.2880662782708606e-15 -2.8658809906634712e-15 -4.058166688308236e-16 3.8599153821129276e-16 5.02452989055036e-24 -2.333851873069336e-26 -7.132151209683005e-29 -7.5131003928876e-25 -1.2539124342572847e-29 -8.361250009783335e-30 -1.0798278238035298e-28 -2.9919587676574646e-25 -2.0297285022941133e-28 1.401812239086668e-17 1.0048649663192115e-15 6.66227163556104e-18 -6.4361728263858925e-18 1.1391083773016162e-16 -1.598603584805652e-17 -5.202902141351681e-16 1.2819105529902436e-16 2.3310999109032605e-18 -2.646622031634055e-17 -1.0711208666331797e-16 -6.170785929494565e-18 -1.2039033287688938e-16 7.13241286618949e-17 0.7768450594598043
0.012958333333333336 300.0000250770986 0.3469226280463294 1.229254290387027 1.7913443985263927e-26 4.170086748256564e-05 3.55978570353993e-27 0.206603287021939 8.804509753410163e-24 6.041754413702625e-09 3.583742916419688e-12 2.218509358773668e-12 6.775008004641947e-10 7.143365177239889e-12 8.583180464659045e-13 3.858519159842906e-24 -6.807810405602474e-17 1.461982068404533e-16 2.264896233514107e-16 1.3878741818536164e-26 -1.4594601665967673e-20 1.4918660150146395e-14 2.338851614071568e-14 1.1774029216266934e-10 -4.105329875328666e-22 3.2144159299615274e-38 3.597014166894353e-45 2.7609239993651496e-13 -2.2020239155821288e-32 1.57820082158796e-11 5.611772082496937e-25 2.689545318443209e-12 5.372602009084056e-15 -9.39950099170235e-16 1.424387198845369e-14 2.229537233112073e-31 -2.2631477336669686e-26 -1.8019358669985903e-15 -7.25138235329333e-42 5.093835842472845e-16 -1.5913048466862353e-15 1.520407226969742e-15 -7.250588338453438e-16 3.0755443647427254e-29 2.9090561719099843e-34 1.3354375680998083e-13 -1.0036316913100301e-16 2.390983519613319e-39 1.2887782455334833e-27 5.115823677596005e-15 1.5248811973777353e-15 7.19439092789288e-20 3.213512953817231e-43 -1.911725207355964e-21 1.5560103918284063e-32 -2.318230973837295e-16 8.633793239721316e-16 -3.524812664381277e-17 1.5852034841558038e-15 6.15188877311396e-16 -2.8069784707401397e-34 -7.608229714497471e-34 1.8653344209000393e-15 1.7489628021346979e-15 -1.3912891813535062e-16 -1.2309851400570898e-16 -8.166039114752575e-31 1.6241006879060662e-23 -4.086072783170747e-16 5.911095182077898e-22 2.5010717281496534e-16 -2.118360533028008e-27 5.178298144084088e-17 -1.7272986070311027e-16 1.3238378234957187e-17 2.7861036797013974e-16 2.264018747455696e-16 1.0642130540356412e-15 -9.237175671894635e-37 1.588834257492402e-16 -1.0753635941778538e-16 -5.66347545622485e-16 1.628539882417019e-26 7.128603373494016e-17 -1.842002034444053e-17 9.00895160299978e-18 3.150676862856863e-18 2.889277329146198e-16 1.419346854832139e-16 7.459797400462512e-16 7.97301082817383e-16 -5.12736575338777e-16 -6.495414184667657e-18 -4.7218927196212164e-20 5.072583992636525e-31 2.1516807015733865e-17 2.1883725300262907e-34 -6.878501578719915e-17 3.9290541030837777e-17 -1.8287839253429634e-16 -5.200892575605447e-17 1.8137044890981025e-16 2.3963849738114973e-17 3.657269043523774e-16 -7.207955389499597e-18 -2.313307291759019e-16 4.293978426221509e-24 -4.310667585187565e-16 -5.374324005358754e-26 3.2144524711419926e-18 3.838982645957777e-37 0.01652838926609562 1.1646377575457366e-26 1.0481372040410158e-25 4.416890526254715e-25 7.872603990822409e-27 -9.39718364726006e-19 1.1653860350183815e-17 -1.425855072993933e-16 -1.2880340018194815e-15 -2.865807330766443e-15 -4.0580882781345866e-16 3.859823979973263e-16 5.0243785384184514e-24 -2.3338115771633125e-26 -7.132153546877117e-29 -7.512924495397493e-25 -1.253912630699178e-29 -8.361251318346684e-30 -1.0798269417098323e-28 -2.992128152232699e-25 -2.029739836233153e-28 1.401794106266254e-17 1.0048466930794956e-15 6.662192254326758e-18 -6.4360568703759955e-18 1.139084855244545e-16 -1.5985704861775187e-17 -5.202808411332005e-16 1.2818873160898173e-16 2.331058673263105e-18 -2.6465443153889858e-17 -1.0711019599770656e-16 -6.170672498894035e-18 -1.2038814353850167e-16 7.132284104712323e-17 0.7768266159747361
0.013145833333333336 300.00008545321174 0.3469312084341719 1.2292238881680493 1.821137068216893e-26 6.830400138875294e-05 3.613156671196395e-27 0.20659799992133432 3.0422905691789835e-23 1.9588756537010685e-08 1.237682376653386e-11 7.683150142369027e-12 2.3332049780810676e-09 3.027062964441653e-11 3.682377056515629e-12 5.309038201961485e-23 -6.502650084764102e-17 8.600419521145473e-16 2.296598093614433e-16 4.7218793064406464e-26 -1.4542070719993316e-20 7.109554576571884e-14 1.0004002475415074e-13 3.8206787275288265e-10 -4.0872407862291293e-22 1.7362342870090833e-37 1.9429730455760076e-44 1.2313295612116861e-12 1.6979753871034307e-32 5.833147969410859e-11 -2.4286226228438373e-25 1.0400132223896756e-11 2.7640651089230716e-14 -9.359113115549401e-16 7.19589181487957e-14 1.3814096590530928e-31 -2.166935044478788e-26 -1.591921252729886e-15 -7.220308725387813e-42 1.0943304546357655e-15 -1.5865936438803204e-15 1.668617029627227e-15 -7.001584574335401e-16 2.6480005520754984e-28 2.934263517138283e-34 6.271918284390579e-13 -9.726057890723788e-17 3.7614152488622977e-38 1.2888721358802402e-27 2.515990246153627e-14 7.344005583991578e-15 9.934314539589813e-19 1.4281058055245848e-41 3.861983149592787e-18 1.7854811377289104e-32 -2.316546106807838e-16 8.713069312573146e-16 -3.5223660393193546e-17 4.884363635114335e-15 6.152119086898205e-16 -2.7770419033216703e-34 -7.527011078667504e-34 4.84720731041415e-15 1.7489749519785584e-15 -1.3770859629678254e-16 -1.2247315766246565e-16 -8.124822475731827e-31 2.205812015408145e-22 -4.0796940256179415e-16 2.0083410508110268e-21 2.508957306525052e-16 -2.1181966105464345e-27 5.17820194246834e-17 -1.7272588245916309e-16 1.772665657346025e-17 2.7862682490433053e-16 2.3761003607129803e-16 1.0642566244507687e-15 -3.1694867665503186e-36 1.651427507611188e-16 -1.074665568759024e-16 -5.662838367760577e-16 5.540698585215726e-26 7.128724381157784e-17 -1.7191002543316802e-17 1.3635414364003664e-17 3.1746703515557166e-18 2.889295790952034e-16 1.4193217326021418e-16 7.460084940736221e-16 7.972897915102435e-16 -5.051291426248551e-16 -6.3358991012259766e-18 -4.7015899709870515e-20 2.2149121991060588e-30 2.780003180828722e-16 2.1884312589769134e-34 -6.861843107549923e-17 3.949662160480042e-17 -1.828593359646969e-16 -5.2007394345318425e-17 1.8136835093205644e-16 2.3963609384135742e-17 3.6976571783891567e-16 -5.6728974822519706e-18 -2.312848190617903e-16 4.293859885886589e-24 -4.309037927169548e-16 -5.366420002464422e-26 3.217027623077518e-18 1.3365348491991458e-36 0.016528047093033633 4.024399431415283e-26 3.6214098086505983e-25 1.525900680929322e-24 2.720381324063116e-26 -9.391772948192426e-19 1.1655454767204914e-17 -1.4257986584257688e-16 -1.2879871667371614e-15 -2.8656322955440454e-15 -4.057987085979395e-16 3.8597090724503273e-16 5.024089445770041e-24 -2.3337155777443744e-26 -7.132103173584152e-29 -7.51265133607094e-25 -1.2539091597149803e-29 -8.361228198887394e-30 -1.0797964639271258e-28 -2.992135384300518e-25 -2.029755487258133e-28 1.4018302737216062e-17 1.0048264948584486e-15 6.662428625523881e-18 -6.435883376095561e-18 1.1390600835370058e-16 -1.5985350160152742e-17 -5.20270174501236e-16 1.2818612329513218e-16 2.3310165976725505e-18 -2.6464742198232316e-17 -1.0710801402473582e-16 -6.170541334185979e-18 -1.2038562304083317e-16 7.13213871175177e-17 0.7768056265552977